 -0.200000000000000       1.517144040289658E-003
 -0.200000000000000       1.517144040289658E-003
 -0.197400000000000       1.567551366891526E-003
 -0.197400000000000       1.567551366891526E-003
 -0.194800000000000       1.621625010394890E-003
 -0.194800000000000       1.621625010394890E-003
 -0.192200000000000       1.679779262976199E-003
 -0.192200000000000       1.679779262976199E-003
 -0.189600000000000       1.742491716423079E-003
 -0.189600000000000       1.742491716423079E-003
 -0.187000000000000       1.810315552808935E-003
 -0.187000000000000       1.810315552808935E-003
 -0.184400000000000       1.883894765520899E-003
 -0.184400000000000       1.883894765520899E-003
 -0.181800000000000       1.963983144086089E-003
 -0.181800000000000       1.963983144086089E-003
 -0.179200000000000       2.051468141336392E-003
 -0.179200000000000       2.051468141336392E-003
 -0.176600000000000       2.147401134741556E-003
 -0.176600000000000       2.147401134741556E-003
 -0.174000000000000       2.253036140943317E-003
 -0.174000000000000       2.253036140943317E-003
 -0.171400000000000       2.369879833818440E-003
 -0.171400000000000       2.369879833818440E-003
 -0.168800000000000       2.499756857233143E-003
 -0.168800000000000       2.499756857233143E-003
 -0.166200000000000       2.644896094618054E-003
 -0.166200000000000       2.644896094618054E-003
 -0.163600000000000       2.808046065299758E-003
 -0.163600000000000       2.808046065299758E-003
 -0.161000000000000       2.992631418810089E-003
 -0.161000000000000       2.992631418810089E-003
 -0.158400000000000       3.202968404055540E-003
 -0.158400000000000       3.202968404055540E-003
 -0.155800000000000       3.444566545379352E-003
 -0.155800000000000       3.444566545379352E-003
 -0.153200000000000       3.724558950719113E-003
 -0.153200000000000       3.724558950719113E-003
 -0.150600000000000       4.052328994041391E-003
 -0.150600000000000       4.052328994041391E-003
 -0.148000000000000       4.440444625888488E-003
 -0.148000000000000       4.440444625888488E-003
 -0.145400000000000       4.906088815109362E-003
 -0.145400000000000       4.906088815109362E-003
 -0.142800000000000       5.473317197519202E-003
 -0.142800000000000       5.473317197519202E-003
 -0.140200000000000       6.176748833497493E-003
 -0.140200000000000       6.176748833497493E-003
 -0.137600000000000       7.067853277722786E-003
 -0.137600000000000       7.067853277722786E-003
 -0.135000000000000       8.226196715916498E-003
 -0.135000000000000       8.226196715916498E-003
 -0.132400000000000       9.780781970282577E-003
 -0.132400000000000       9.780781970282577E-003
 -0.129800000000000       1.195360301204945E-002
 -0.129800000000000       1.195360301204945E-002
 -0.127200000000000       1.515715156913607E-002
 -0.127200000000000       1.515715156913607E-002
 -0.124600000000000       2.024097918238952E-002
 -0.124600000000000       2.024097918238952E-002
 -0.122000000000000       2.922999735172122E-002
 -0.122000000000000       2.922999735172122E-002
 -0.119400000000000       4.817649709396978E-002
 -0.119400000000000       4.817649709396978E-002
 -0.116800000000000       0.104377565013143     
 -0.116800000000000       0.104377565013143     
 -0.114200000000000       0.590211137939234     
 -0.114200000000000       0.590211137939234     
 -0.111600000000000        12.7233218824372     
 -0.111600000000000        12.7233218824372     
 -0.109000000000000        7.61147740720356     
 -0.109000000000000        7.61147740720356     
 -0.106400000000000        5.96139008557182     
 -0.106400000000000        5.96139008557182     
 -0.103800000000000        5.07644240338979     
 -0.103800000000000        5.07644240338979     
 -0.101200000000000        4.50561183248828     
 -0.101200000000000        4.50561183248828     
 -9.860000000000001E-002   4.09933536207558     
 -9.860000000000001E-002   4.09933536207558     
 -9.600000000000002E-002   3.79182009971608     
 -9.600000000000002E-002   3.79182009971608     
 -9.340000000000000E-002   3.54901486123115     
 -9.340000000000000E-002   3.54901486123115     
 -9.080000000000001E-002   3.35130198004635     
 -9.080000000000001E-002   3.35130198004635     
 -8.820000000000001E-002   3.18648061733596     
 -8.820000000000001E-002   3.18648061733596     
 -8.560000000000001E-002   3.04651335335601     
 -8.560000000000001E-002   3.04651335335601     
 -8.300000000000000E-002   2.92586221794950     
 -8.300000000000000E-002   2.92586221794950     
 -8.040000000000000E-002   2.82057121789814     
 -8.040000000000000E-002   2.82057121789814     
 -7.780000000000001E-002   2.72772939798149     
 -7.780000000000001E-002   2.72772939798149     
 -7.520000000000000E-002   2.64514098558560     
 -7.520000000000000E-002   2.64514098558560     
 -7.260000000000000E-002   2.57111441935218     
 -7.260000000000000E-002   2.57111441935218     
 -7.000000000000001E-002   2.50432274269050     
 -7.000000000000001E-002   2.50432274269050     
 -6.740000000000002E-002   2.44370848929428     
 -6.740000000000002E-002   2.44370848929428     
 -6.480000000000000E-002   2.38841722412818     
 -6.480000000000000E-002   2.38841722412818     
 -6.220000000000001E-002   2.33775006938240     
 -6.220000000000001E-002   2.33775006938240     
 -5.960000000000001E-002   2.29112912440438     
 -5.960000000000001E-002   2.29112912440438     
 -5.700000000000002E-002   2.24807183719588     
 -5.700000000000002E-002   2.24807183719588     
 -5.440000000000000E-002   2.20817171326131     
 -5.440000000000000E-002   2.20817171326131     
 -5.179999999999998E-002   2.17108359057332     
 -5.179999999999998E-002   2.17108359057332     
 -4.919999999999999E-002   2.13651225691840     
 -4.919999999999999E-002   2.13651225691840     
 -4.660000000000000E-002   2.10420354936890     
 -4.660000000000000E-002   2.10420354936890     
 -4.400000000000001E-002   2.07393732121399     
 -4.400000000000001E-002   2.07393732121399     
 -4.140000000000002E-002   2.04552183102905     
 -4.140000000000002E-002   2.04552183102905     
 -3.880000000000000E-002   2.01878922645751     
 -3.880000000000000E-002   2.01878922645751     
 -3.620000000000001E-002   1.99359187961257     
 -3.620000000000001E-002   1.99359187961257     
 -3.360000000000002E-002   1.96979939090971     
 -3.360000000000002E-002   1.96979939090971     
 -3.100000000000000E-002   1.94729612239999     
 -3.100000000000000E-002   1.94729612239999     
 -2.840000000000001E-002   1.92597915377723     
 -2.840000000000001E-002   1.92597915377723     
 -2.579999999999999E-002   1.90575657847462     
 -2.579999999999999E-002   1.90575657847462     
 -2.320000000000000E-002   1.88654607524225     
 -2.320000000000000E-002   1.88654607524225     
 -2.060000000000001E-002   1.86827370445613     
 -2.060000000000001E-002   1.86827370445613     
 -1.800000000000002E-002   1.85087288881955     
 -1.800000000000002E-002   1.85087288881955     
 -1.540000000000002E-002   1.83428354628473     
 -1.540000000000002E-002   1.83428354628473     
 -1.280000000000001E-002   1.81845134934878     
 -1.280000000000001E-002   1.81845134934878     
 -1.019999999999999E-002   1.80332708978410     
 -1.019999999999999E-002   1.80332708978410     
 -7.599999999999996E-003   1.78886613179979     
 -7.599999999999996E-003   1.78886613179979     
 -5.000000000000004E-003   1.77502793970607     
 -5.000000000000004E-003   1.77502793970607     
 -2.400000000000013E-003   1.76177566864372     
 -2.400000000000013E-003   1.76177566864372     
  2.000000000000057E-004   1.74907580892907     
  2.000000000000057E-004   1.74907580892907     
  2.799999999999997E-003   1.73689787616601     
  2.799999999999997E-003   1.73689787616601     
  5.399999999999988E-003   1.72521414058955     
  5.399999999999988E-003   1.72521414058955     
  7.999999999999979E-003   1.71399939018221     
  7.999999999999979E-003   1.71399939018221     
  1.059999999999997E-002   1.70323072296023     
  1.059999999999997E-002   1.70323072296023     
  1.320000000000002E-002   1.69288736459174     
  1.320000000000002E-002   1.69288736459174     
  1.580000000000001E-002   1.68295050804232     
  1.580000000000001E-002   1.68295050804232     
  1.840000000000000E-002   1.67340317254269     
  1.840000000000000E-002   1.67340317254269     
  2.099999999999999E-002   1.66423007948651     
  2.099999999999999E-002   1.66423007948651     
  2.359999999999998E-002   1.65541754331703     
  2.359999999999998E-002   1.65541754331703     
  2.620000000000000E-002   1.64695337568835     
  2.620000000000000E-002   1.64695337568835     
  2.879999999999999E-002   1.63882680149311     
  2.879999999999999E-002   1.63882680149311     
  3.139999999999998E-002   1.63102838553935     
  3.139999999999998E-002   1.63102838553935     
  3.400000000000000E-002   1.62354996887437     
  3.400000000000000E-002   1.62354996887437     
  3.659999999999999E-002   1.61638461387173     
  3.659999999999999E-002   1.61638461387173     
  3.920000000000001E-002   1.60952655742769     
  3.920000000000001E-002   1.60952655742769     
  4.180000000000000E-002   1.60297117164174     
  4.180000000000000E-002   1.60297117164174     
  4.440000000000000E-002   1.59671493155061     
  4.440000000000000E-002   1.59671493155061     
  4.699999999999999E-002   1.59075538955669     
  4.699999999999999E-002   1.59075538955669     
  4.960000000000001E-002   1.58509115628904     
  4.960000000000001E-002   1.58509115628904     
  5.220000000000002E-002   1.57972188773133     
  5.220000000000002E-002   1.57972188773133     
  5.480000000000002E-002   1.57464827855949     
  5.480000000000002E-002   1.57464827855949     
  5.740000000000001E-002   1.56987206166697     
  5.740000000000001E-002   1.56987206166697     
  6.000000000000000E-002   1.56539601399779     
  6.000000000000000E-002   1.56539601399779     
  6.259999999999999E-002   1.56122396885279     
  6.259999999999999E-002   1.56122396885279     
  6.519999999999998E-002   1.55736083494342     
  6.519999999999998E-002   1.55736083494342     
  6.780000000000003E-002   1.55381262255761     
  6.780000000000003E-002   1.55381262255761     
  7.040000000000002E-002   1.55058647729375     
  7.040000000000002E-002   1.55058647729375     
  7.300000000000001E-002   1.54769072195922     
  7.300000000000001E-002   1.54769072195922     
  7.560000000000000E-002   1.54513490728568     
  7.560000000000000E-002   1.54513490728568     
  7.819999999999999E-002   1.54292987237504     
  7.819999999999999E-002   1.54292987237504     
  8.079999999999998E-002   1.54108781576974     
  8.079999999999998E-002   1.54108781576974     
  8.340000000000003E-002   1.53962237840540     
  8.340000000000003E-002   1.53962237840540     
  8.599999999999997E-002   1.53854873974962     
  8.599999999999997E-002   1.53854873974962     
  8.860000000000001E-002   1.53788372882205     
  8.860000000000001E-002   1.53788372882205     
  9.120000000000000E-002   1.53764595190602     
  9.120000000000000E-002   1.53764595190602     
  9.379999999999999E-002   1.53785593925137     
  9.379999999999999E-002   1.53785593925137     
  9.640000000000004E-002   1.53853631336321     
  9.640000000000004E-002   1.53853631336321     
  9.899999999999998E-002   1.53971198198780     
  9.899999999999998E-002   1.53971198198780     
  0.101600000000000        1.54141035938080     
  0.101600000000000        1.54141035938080     
  0.104200000000000        1.54366162029905     
  0.104200000000000        1.54366162029905     
  0.106800000000000        1.54649899174789     
  0.106800000000000        1.54649899174789     
  0.109400000000000        1.54995908864877     
  0.109400000000000        1.54995908864877     
  0.112000000000000        1.55408230076742     
  0.112000000000000        1.55408230076742     
  0.114600000000000        1.55891323968445     
  0.114600000000000        1.55891323968445     
  0.117200000000000        1.56450125641481     
  0.117200000000000        1.56450125641481     
  0.119800000000000        1.57090104255089     
  0.119800000000000        1.57090104255089     
  0.122400000000000        1.57817333057547     
  0.122400000000000        1.57817333057547     
  0.125000000000000        1.58638571247954     
  0.125000000000000        1.58638571247954     
  0.127600000000000        1.59561360024755     
  0.127600000000000        1.59561360024755     
  0.130200000000000        1.60594135731600     
  0.130200000000000        1.60594135731600     
  0.132800000000000        1.61746363724083     
  0.132800000000000        1.61746363724083     
  0.135400000000000        1.63028697492671     
  0.135400000000000        1.63028697492671     
  0.138000000000000        1.64453168758244     
  0.138000000000000        1.64453168758244     
  0.140600000000000        1.66033415797348     
  0.140600000000000        1.66033415797348     
  0.143200000000000        1.67784959276535     
  0.143200000000000        1.67784959276535     
  0.145800000000000        1.69725537565644     
  0.145800000000000        1.69725537565644     
  0.148400000000000        1.71875517091845     
  0.148400000000000        1.71875517091845     
  0.151000000000000        1.74258398172098     
  0.151000000000000        1.74258398172098     
  0.153600000000000        1.76901443414985     
  0.153600000000000        1.76901443414985     
  0.156200000000000        1.79836465006260     
  0.156200000000000        1.79836465006260     
  0.158800000000000        1.83100820117447     
  0.158800000000000        1.83100820117447     
  0.161400000000000        1.86738682050021     
  0.161400000000000        1.86738682050021     
  0.164000000000000        1.90802681238657     
  0.164000000000000        1.90802681238657     
  0.166600000000000        1.95356049118212     
  0.166600000000000        1.95356049118212     
  0.169200000000000        2.00475455919886     
  0.169200000000000        2.00475455919886     
  0.171800000000000        2.06254821866936     
  0.171800000000000        2.06254821866936     
  0.174400000000000        2.12810518837397     
  0.174400000000000        2.12810518837397     
  0.177000000000000        2.20288598942302     
  0.177000000000000        2.20288598942302     
  0.179600000000000        2.28875045856527     
  0.179600000000000        2.28875045856527     
  0.182200000000000        2.38810651728051     
  0.182200000000000        2.38810651728051     
  0.184800000000000        2.50413183839672     
  0.184800000000000        2.50413183839672     
  0.187400000000000        2.64111436344126     
  0.187400000000000        2.64111436344126     
  0.190000000000000        2.80499442215884     
  0.190000000000000        2.80499442215884     
  0.192600000000000        3.00426523819632     
  0.192600000000000        3.00426523819632     
  0.195200000000000        3.25154754056095     
  0.195200000000000        3.25154754056095     
  0.197800000000000        3.56652335885192     
  0.197800000000000        3.56652335885192     
  0.200400000000000        3.98186218769336     
  0.200400000000000        3.98186218769336     
  0.203000000000000        4.55654268584763     
  0.203000000000000        4.55654268584763     
  0.205600000000000        5.41064236039664     
  0.205600000000000        5.41064236039664     
  0.208200000000000        6.83981387522893     
  0.208200000000000        6.83981387522893     
  0.210800000000000        9.89823573880613     
  0.210800000000000        9.89823573880613     
  0.213400000000000        86.5691208122207     
  0.213400000000000        86.5691208122207     
  0.216000000000000        2.29029740231844     
  0.216000000000000        2.29029740231844     
  0.218600000000000       0.394298418389288     
  0.218600000000000       0.394298418389288     
  0.221200000000000       0.175119921860621     
  0.221200000000000       0.175119921860621     
  0.223800000000000       0.107817666881163     
  0.223800000000000       0.107817666881163     
  0.226400000000000       8.018098516545966E-002
  0.226400000000000       8.018098516545966E-002
  0.229000000000000       6.852982468251079E-002
  0.229000000000000       6.852982468251079E-002
  0.231600000000000       6.611397025733345E-002
  0.231600000000000       6.611397025733345E-002
  0.234200000000000       7.207345017122789E-002
  0.234200000000000       7.207345017122789E-002
  0.236800000000000       9.083671901975879E-002
  0.236800000000000       9.083671901975879E-002
  0.239400000000000       0.141708824687770     
  0.239400000000000       0.141708824687770     
  0.242000000000000       0.344400824287261     
  0.242000000000000       0.344400824287261     
  0.244600000000000        19.4782640724209     
  0.244600000000000        19.4782640724209     
  0.247200000000000        19.1303264117332     
  0.247200000000000        19.1303264117332     
  0.249800000000000        13.5012207166882     
  0.249800000000000        13.5012207166882     
  0.252400000000000        11.1167034578930     
  0.252400000000000        11.1167034578930     
  0.255000000000000        9.73567532128988     
  0.255000000000000        9.73567532128988     
  0.257600000000000        8.81741737644414     
  0.257600000000000        8.81741737644414     
  0.260200000000000        8.15729500875160     
  0.260200000000000        8.15729500875160     
  0.262800000000000        7.65862552116347     
  0.262800000000000        7.65862552116347     
  0.265400000000000        7.26908242428099     
  0.265400000000000        7.26908242428099     
  0.268000000000000        6.95760401686436     
  0.268000000000000        6.95760401686436     
  0.270600000000000        6.70447648695355     
  0.270600000000000        6.70447648695355     
  0.273200000000000        6.49654285693374     
  0.273200000000000        6.49654285693374     
  0.275800000000000        6.32467628920905     
  0.275800000000000        6.32467628920905     
  0.278400000000000        6.18235399185433     
  0.278400000000000        6.18235399185433     
  0.281000000000000        6.06480773691921     
  0.281000000000000        6.06480773691921     
  0.283600000000000        5.96849541833150     
  0.283600000000000        5.96849541833150     
  0.286200000000000        5.89076068130749     
  0.286200000000000        5.89076068130749     
  0.288800000000000        5.82960768233656     
  0.288800000000000        5.82960768233656     
  0.291400000000000        5.78354918895061     
  0.291400000000000        5.78354918895061     
  0.294000000000000        5.75150322778596     
  0.294000000000000        5.75150322778596     
  0.296600000000000        5.73272319971074     
  0.296600000000000        5.73272319971074     
  0.299200000000000        5.72675218247433     
  0.299200000000000        5.72675218247433     
  0.301800000000000        5.73339578976430     
  0.301800000000000        5.73339578976430     
  0.304400000000000        5.75271040801253     
  0.304400000000000        5.75271040801253     
  0.307000000000000        5.78500545684612     
  0.307000000000000        5.78500545684612     
  0.309600000000000        5.83085988138090     
  0.309600000000000        5.83085988138090     
  0.312200000000000        5.89115468310172     
  0.312200000000000        5.89115468310172     
  0.314800000000000        5.96712523187847     
  0.314800000000000        5.96712523187847     
  0.317400000000000        6.06043977714919     
  0.317400000000000        6.06043977714919     
  0.320000000000000        6.17331461969780     
  0.320000000000000        6.17331461969780     
  0.322600000000000        6.30868290362529     
  0.322600000000000        6.30868290362529     
  0.325200000000000        6.47044494676304     
  0.325200000000000        6.47044494676304     
  0.327800000000000        6.66384734078292     
  0.327800000000000        6.66384734078292     
  0.330400000000000        6.89607368366595     
  0.330400000000000        6.89607368366595     
  0.333000000000000        7.17719899179073     
  0.333000000000000        7.17719899179073     
  0.335600000000000        7.52180240046012     
  0.335600000000000        7.52180240046012     
  0.338200000000000        7.95184820738469     
  0.338200000000000        7.95184820738469     
  0.340800000000000        8.50220717465083     
  0.340800000000000        8.50220717465083     
  0.343400000000000        9.23224617935332     
  0.343400000000000        9.23224617935332     
  0.346000000000000        10.2533406474631     
  0.346000000000000        10.2533406474631     
  0.348600000000000        11.8068399588719     
  0.348600000000000        11.8068399588719     
  0.351200000000000        14.5574527779159     
  0.351200000000000        14.5574527779159     
  0.353800000000000        21.5482087767984     
  0.353800000000000        21.5482087767984     
  0.356400000000000        148.511963192271     
  0.356400000000000        148.511963192271     
  0.359000000000000        45.4809495429360     
  0.359000000000000        45.4809495429360     
  0.361600000000000        32.6252358683171     
  0.361600000000000        32.6252358683171     
  0.364200000000000        26.6861133945830     
  0.364200000000000        26.6861133945830     
  0.366800000000000        23.1118741985179     
  0.366800000000000        23.1118741985179     
  0.369400000000000        20.6824847418673     
  0.369400000000000        20.6824847418673     
  0.372000000000000        18.9166314751200     
  0.372000000000000        18.9166314751200     
  0.374600000000000        17.5913775244882     
  0.374600000000000        17.5913775244882     
  0.377200000000000        16.6340995108038     
  0.377200000000000        16.6340995108038     
  0.379800000000000        16.5841903805898     
  0.379800000000000        16.5841903805898     
  0.382400000000000        55.8975746279860     
  0.382400000000000        55.8975746279860     
  0.385000000000000        37.1594115710074     
  0.385000000000000        37.1594115710074     
  0.387600000000000        32.0315117127964     
  0.387600000000000        32.0315117127964     
  0.390200000000000        29.4692908955488     
  0.390200000000000        29.4692908955488     
  0.392800000000000        28.0038016133430     
  0.392800000000000        28.0038016133430     
  0.395400000000000        27.2101417775716     
  0.395400000000000        27.2101417775716     
  0.398000000000000        26.9666510406336     
  0.398000000000000        26.9666510406336     
  0.400600000000000        27.3329513487537     
  0.400600000000000        27.3329513487537     
  0.403200000000000        28.6494460739343     
  0.403200000000000        28.6494460739343     
  0.405800000000000        32.2661017318456     
  0.405800000000000        32.2661017318456     
  0.408400000000000        52.2761175731713     
  0.408400000000000        52.2761175731713     
  0.411000000000000        49.8971189397563     
  0.411000000000000        49.8971189397563     
  0.413600000000000        37.4181993996223     
  0.413600000000000        37.4181993996223     
  0.416200000000000        33.1015376447266     
  0.416200000000000        33.1015376447266     
  0.418800000000000        30.8867825457619     
  0.418800000000000        30.8867825457619     
  0.421400000000000        29.6168041242505     
  0.421400000000000        29.6168041242505     
  0.424000000000000        28.8997423994042     
  0.424000000000000        28.8997423994042     
  0.426600000000000        28.5707822814712     
  0.426600000000000        28.5707822814712     
  0.429200000000000        28.5586305150695     
  0.429200000000000        28.5586305150695     
  0.431800000000000        28.8429641242291     
  0.431800000000000        28.8429641242291     
  0.434400000000000        29.4423305117412     
  0.434400000000000        29.4423305117412     
  0.437000000000000        30.4189864124711     
  0.437000000000000        30.4189864124711     
  0.439600000000000        31.9043069705429     
  0.439600000000000        31.9043069705429     
  0.442200000000000        34.1716977876894     
  0.442200000000000        34.1716977876894     
  0.444800000000000        37.8711834960787     
  0.444800000000000        37.8711834960787     
  0.447400000000000        45.1097662520715     
  0.447400000000000        45.1097662520715     
  0.450000000000000        73.0535253933870     
  0.450000000000000        73.0535253933870     
  0.452600000000000        20.0642658428624     
  0.452600000000000        20.0642658428624     
  0.455200000000000        21.6275950626466     
  0.455200000000000        21.6275950626466     
  0.457800000000000        25.8488113565712     
  0.457800000000000        25.8488113565712     
  0.460400000000000        36.9132605833361     
  0.460400000000000        36.9132605833361     
  0.463000000000000        9.70345903288608     
  0.463000000000000        9.70345903288608     
  0.465600000000000        1.72971987203469     
  0.465600000000000        1.72971987203469     
  0.468200000000000        1.40627297251127     
  0.468200000000000        1.40627297251127     
  0.470800000000000        1.29774277768179     
  0.470800000000000        1.29774277768179     
  0.473400000000000        1.23929040442041     
  0.473400000000000        1.23929040442041     
  0.476000000000000        1.20013295244082     
  0.476000000000000        1.20013295244082     
  0.478600000000000        1.17058377069537     
  0.478600000000000        1.17058377069537     
  0.481200000000000        1.14665207158060     
  0.481200000000000        1.14665207158060     
  0.483800000000000        1.12638921823773     
  0.483800000000000        1.12638921823773     
  0.486400000000000        1.10872373121654     
  0.486400000000000        1.10872373121654     
  0.489000000000000        1.09301188428831     
  0.489000000000000        1.09301188428831     
  0.491600000000000        1.07883931117421     
  0.491600000000000        1.07883931117421     
  0.494200000000000        1.06592409007328     
  0.494200000000000        1.06592409007328     
  0.496800000000000        1.05406549854965     
  0.496800000000000        1.05406549854965     
  0.499400000000000        1.04311512990562     
  0.499400000000000        1.04311512990562     
  0.502000000000000        1.03295973082899     
  0.502000000000000        1.03295973082899     
  0.504600000000000        1.02351053962370     
  0.504600000000000        1.02351053962370     
  0.507200000000000        1.01469640530013     
  0.507200000000000        1.01469640530013     
  0.509800000000000        1.00645919716311     
  0.509800000000000        1.00645919716311     
  0.512400000000000       0.998750651989453     
  0.512400000000000       0.998750651989453     
  0.515000000000000       0.991530151995981     
  0.515000000000000       0.991530151995981     
  0.517600000000000       0.984763122334153     
  0.517600000000000       0.984763122334153     
  0.520200000000000       0.978419851284105     
  0.520200000000000       0.978419851284105     
  0.522800000000000       0.972474605389768     
  0.522800000000000       0.972474605389768     
  0.525400000000000       0.966904954639262     
  0.525400000000000       0.966904954639262     
  0.528000000000000       0.961691250075274     
  0.528000000000000       0.961691250075274     
  0.530600000000000       0.956816213958172     
  0.530600000000000       0.956816213958172     
  0.533200000000000       0.952264614418658     
  0.533200000000000       0.952264614418658     
  0.535800000000000       0.948023004486323     
  0.535800000000000       0.948023004486323     
  0.538400000000000       0.944079510920246     
  0.538400000000000       0.944079510920246     
  0.541000000000000       0.940423662091360     
  0.541000000000000       0.940423662091360     
  0.543600000000000       0.937046246921137     
  0.543600000000000       0.937046246921137     
  0.546200000000000       0.933939198840329     
  0.546200000000000       0.933939198840329     
  0.548800000000000       0.931095500202880     
  0.548800000000000       0.931095500202880     
  0.551400000000000       0.928509103637533     
  0.551400000000000       0.928509103637533     
  0.554000000000000       0.926174867628716     
  0.554000000000000       0.926174867628716     
  0.556600000000000       0.924088504251392     
  0.556600000000000       0.924088504251392     
  0.559200000000000       0.922246537430913     
  0.559200000000000       0.922246537430913     
  0.561800000000000       0.920646270490939     
  0.561800000000000       0.920646270490939     
  0.564400000000000       0.919285762044336     
  0.564400000000000       0.919285762044336     
  0.567000000000000       0.918163809515863     
  0.567000000000000       0.918163809515863     
  0.569600000000000       0.917279939811583     
  0.569600000000000       0.917279939811583     
  0.572200000000000       0.916634406792954     
  0.572200000000000       0.916634406792954     
  0.574800000000000       0.916228195388933     
  0.574800000000000       0.916228195388933     
  0.577400000000000       0.916063032320212     
  0.577400000000000       0.916063032320212     
  0.580000000000000       0.916141403523251     
  0.580000000000000       0.916141403523251     
  0.582600000000000       0.916466578527319     
  0.582600000000000       0.916466578527319     
  0.585200000000000       0.917042642135753     
  0.585200000000000       0.917042642135753     
  0.587800000000000       0.917874533945040     
  0.587800000000000       0.917874533945040     
  0.590400000000000       0.918968096350153     
  0.590400000000000       0.918968096350153     
  0.593000000000000       0.920330131901768     
  0.593000000000000       0.920330131901768     